<?xml version="1.0"?>
<VTKFile type="UnstructuredGrid"  version="0.1"  >
<UnstructuredGrid>
<Piece  NumberOfPoints="4412" NumberOfCells="8474">
<Points>
<DataArray  type="Float64"  NumberOfComponents="3"  format="ascii">0 87 0  300 87 0  300 0 0  0 0 0  0 30 0  300 30 0  0 32 0  300 32 0  300 62 0  0 62 0  81 39.5 0  231 39.5 0  2.884615384615382 87 0  5.769230769230764 87 0  8.653846153846146 87 0  11.53846153846153 87 0  14.42307692307691 87 0  17.30769230769229 87 0  20.19230769230767 87 0  23.07692307692306 87 0  25.96153846153844 87 0  28.84615384615382 87 0  31.73076923076921 87 0  34.61538461538459 87 0  37.49999999999997 87 0  40.38461538461536 87 0  43.26923076923075 87 0  46.15384615384612 87 0  49.03846153846152 87 0  51.92307692307691 87 0  54.80769230769229 87 0  57.69230769230767 87 0  60.57692307692306 87 0  63.46153846153844 87 0  66.34615384615383 87 0  69.23076923076921 87 0  72.1153846153846 87 0  74.99999999999999 87 0  77.88461538461536 87 0  80.76923076923075 87 0  83.65384615384613 87 0  86.53846153846152 87 0  89.42307692307691 87 0  92.30769230769228 87 0  95.19230769230766 87 0  98.07692307692305 87 0  100.9615384615384 87 0  103.8461538461538 87 0  106.7307692307692 87 0  109.6153846153846 87 0  112.5 87 0  115.3846153846154 87 0  118.2692307692307 87 0  121.1538461538461 87 0  124.0384615384615 87 0  126.9230769230769 87 0  129.8076923076923 87 0  132.6923076923077 87 0  135.5769230769231 87 0  138.4615384615385 87 0  141.3461538461538 87 0  144.2307692307692 87 0  147.1153846153846 87 0  150 87 0  152.8846153846154 87 0  155.7692307692307 87 0  158.6538461538461 87 0  161.5384615384615 87 0  164.4230769230769 87 0  167.3076923076923 87 0  170.1923076923077 87 0  173.0769230769231 87 0  175.9615384615385 87 0  178.8461538461538 87 0  181.7307692307692 87 0  184.6153846153846 87 0  187.5 87 0  190.3846153846154 87 0  193.2692307692308 87 0  196.1538461538462 87 0  199.0384615384615 87 0  201.9230769230769 87 0  204.8076923076923 87 0  207.6923076923077 87 0  210.5769230769231 87 0  213.4615384615385 87 0  216.3461538461538 87 0  219.2307692307692 87 0  222.1153846153846 87 0  225 87 0  227.8846153846154 87 0  230.7692307692308 87 0  233.6538461538462 87 0  236.5384615384615 87 0  239.4230769230769 87 0  242.3076923076923 87 0  245.1923076923077 87 0  248.0769230769231 87 0  250.9615384615385 87 0  253.8461538461538 87 0  256.7307692307692 87 0  259.6153846153846 87 0  262.5 87 0  265.3846153846154 87 0  268.2692307692308 87 0  271.1538461538461 87 0  274.0384615384615 87 0  276.9230769230769 87 0  279.8076923076923 87 0  282.6923076923077 87 0  285.5769230769231 87 0  288.4615384615385 87 0  291.3461538461539 87 0  294.2307692307692 87 0  297.1153846153846 87 0  2.884615384615382 0 0  5.769230769230764 0 0  8.653846153846146 0 0  11.53846153846153 0 0  14.42307692307691 0 0  17.30769230769229 0 0  20.19230769230767 0 0  23.07692307692306 0 0  25.96153846153844 0 0  28.84615384615382 0 0  31.73076923076921 0 0  34.61538461538459 0 0  37.49999999999997 0 0  40.38461538461536 0 0  43.26923076923075 0 0  46.15384615384612 0 0  49.03846153846152 0 0  51.92307692307691 0 0  54.80769230769229 0 0  57.69230769230767 0 0  60.57692307692306 0 0  63.46153846153844 0 0  66.34615384615383 0 0  69.23076923076921 0 0  72.1153846153846 0 0  74.99999999999999 0 0  77.88461538461536 0 0  80.76923076923075 0 0  83.65384615384613 0 0  86.53846153846152 0 0  89.42307692307691 0 0  92.30769230769228 0 0  95.19230769230766 0 0  98.07692307692305 0 0  100.9615384615384 0 0  103.8461538461538 0 0  106.7307692307692 0 0  109.6153846153846 0 0  112.5 0 0  115.3846153846154 0 0  118.2692307692307 0 0  121.1538461538461 0 0  124.0384615384615 0 0  126.9230769230769 0 0  129.8076923076923 0 0  132.6923076923077 0 0  135.5769230769231 0 0  138.4615384615385 0 0  141.3461538461538 0 0  144.2307692307692 0 0  147.1153846153846 0 0  150 0 0  152.8846153846154 0 0  155.7692307692307 0 0  158.6538461538461 0 0  161.5384615384615 0 0  164.4230769230769 0 0  167.3076923076923 0 0  170.1923076923077 0 0  173.0769230769231 0 0  175.9615384615385 0 0  178.8461538461538 0 0  181.7307692307692 0 0  184.6153846153846 0 0  187.5 0 0  190.3846153846154 0 0  193.2692307692308 0 0  196.1538461538462 0 0  199.0384615384615 0 0  201.9230769230769 0 0  204.8076923076923 0 0  207.6923076923077 0 0  210.5769230769231 0 0  213.4615384615385 0 0  216.3461538461538 0 0  219.2307692307692 0 0  222.1153846153846 0 0  225 0 0  227.8846153846154 0 0  230.7692307692308 0 0  233.6538461538462 0 0  236.5384615384615 0 0  239.4230769230769 0 0  242.3076923076923 0 0  245.1923076923077 0 0  248.0769230769231 0 0  250.9615384615385 0 0  253.8461538461538 0 0  256.7307692307692 0 0  259.6153846153846 0 0  262.5 0 0  265.3846153846154 0 0  268.2692307692308 0 0  271.1538461538461 0 0  274.0384615384615 0 0  276.9230769230769 0 0  279.8076923076923 0 0  282.6923076923077 0 0  285.5769230769231 0 0  288.4615384615385 0 0  291.3461538461539 0 0  294.2307692307692 0 0  297.1153846153846 0 0  2.884615384615382 30 0  5.769230769230764 30 0  8.653846153846146 30 0  11.53846153846153 30 0  14.42307692307691 30 0  17.30769230769229 30 0  20.19230769230767 30 0  23.07692307692306 30 0  25.96153846153844 30 0  28.84615384615382 30 0  31.73076923076921 30 0  34.61538461538459 30 0  37.49999999999997 30 0  40.38461538461536 30 0  43.26923076923075 30 0  46.15384615384612 30 0  49.03846153846152 30 0  51.92307692307691 30 0  54.80769230769229 30 0  57.69230769230767 30 0  60.57692307692306 30 0  63.46153846153844 30 0  66.34615384615383 30 0  69.23076923076921 30 0  72.1153846153846 30 0  74.99999999999999 30 0  77.88461538461536 30 0  80.76923076923075 30 0  83.65384615384613 30 0  86.53846153846152 30 0  89.42307692307691 30 0  92.30769230769228 30 0  95.19230769230766 30 0  98.07692307692305 30 0  100.9615384615384 30 0  103.8461538461538 30 0  106.7307692307692 30 0  109.6153846153846 30 0  112.5 30 0  115.3846153846154 30 0  118.2692307692307 30 0  121.1538461538461 30 0  124.0384615384615 30 0  126.9230769230769 30 0  129.8076923076923 30 0  132.6923076923077 30 0  135.5769230769231 30 0  138.4615384615385 30 0  141.3461538461538 30 0  144.2307692307692 30 0  147.1153846153846 30 0  150 30 0  152.8846153846154 30 0  155.7692307692307 30 0  158.6538461538461 30 0  161.5384615384615 30 0  164.4230769230769 30 0  167.3076923076923 30 0  170.1923076923077 30 0  173.0769230769231 30 0  175.9615384615385 30 0  178.8461538461538 30 0  181.7307692307692 30 0  184.6153846153846 30 0  187.5 30 0  190.3846153846154 30 0  193.2692307692308 30 0  196.1538461538462 30 0  199.0384615384615 30 0  201.9230769230769 30 0  204.8076923076923 30 0  207.6923076923077 30 0  210.5769230769231 30 0  213.4615384615385 30 0  216.3461538461538 30 0  219.2307692307692 30 0  222.1153846153846 30 0  225 30 0  227.8846153846154 30 0  230.7692307692308 30 0  233.6538461538462 30 0  236.5384615384615 30 0  239.4230769230769 30 0  242.3076923076923 30 0  245.1923076923077 30 0  248.0769230769231 30 0  250.9615384615385 30 0  253.8461538461538 30 0  256.7307692307692 30 0  259.6153846153846 30 0  262.5 30 0  265.3846153846154 30 0  268.2692307692308 30 0  271.1538461538461 30 0  274.0384615384615 30 0  276.9230769230769 30 0  279.8076923076923 30 0  282.6923076923077 30 0  285.5769230769231 30 0  288.4615384615385 30 0  291.3461538461539 30 0  294.2307692307692 30 0  297.1153846153846 30 0  297.1153846153846 32 0  294.2307692307692 32 0  291.3461538461539 32 0  288.4615384615385 32 0  285.5769230769231 32 0  282.6923076923077 32 0  279.8076923076923 32 0  276.923076923077 32 0  274.0384615384615 32 0  271.1538461538462 32 0  268.2692307692308 32 0  265.3846153846154 32 0  262.5 32 0  259.6153846153846 32 0  256.7307692307693 32 0  253.8461538461539 32 0  250.9615384615385 32 0  248.0769230769231 32 0  245.1923076923077 32 0  242.3076923076923 32 0  239.4230769230769 32 0  236.5384615384615 32 0  233.6538461538462 32 0  230.7692307692308 32 0  227.8846153846154 32 0  225 32 0  222.1153846153846 32 0  219.2307692307693 32 0  216.3461538461539 32 0  213.4615384615385 32 0  210.5769230769231 32 0  207.6923076923077 32 0  204.8076923076923 32 0  201.923076923077 32 0  199.0384615384615 32 0  196.1538461538462 32 0  193.2692307692308 32 0  190.3846153846154 32 0  187.5 32 0  184.6153846153846 32 0  181.7307692307693 32 0  178.8461538461539 32 0  175.9615384615385 32 0  173.0769230769231 32 0  170.1923076923077 32 0  167.3076923076923 32 0  164.4230769230769 32 0  161.5384615384615 32 0  158.6538461538462 32 0  155.7692307692308 32 0  152.8846153846154 32 0  150 32 0  147.1153846153846 32 0  144.2307692307693 32 0  141.3461538461539 32 0  138.4615384615385 32 0  135.5769230769231 32 0  132.6923076923077 32 0  129.8076923076923 32 0  126.9230769230769 32 0  124.0384615384615 32 0  121.1538461538462 32 0  118.2692307692308 32 0  115.3846153846154 32 0  112.5 32 0  109.6153846153846 32 0  106.7307692307692 32 0  103.8461538461538 32 0  100.9615384615385 32 0  98.07692307692307 32 0  95.19230769230768 32 0  92.30769230769232 32 0  89.42307692307693 32 0  86.53846153846155 32 0  83.65384615384616 32 0  80.76923076923077 32 0  77.88461538461539 32 0  75 32 0  72.11538461538461 32 0  69.23076923076923 32 0  66.34615384615384 32 0  63.46153846153845 32 0  60.57692307692307 32 0  57.69230769230768 32 0  54.80769230769232 32 0  51.92307692307693 32 0  49.03846153846155 32 0  46.15384615384616 32 0  43.26923076923077 32 0  40.38461538461536 32 0  37.5 32 0  34.61538461538464 32 0  31.73076923076923 32 0  28.84615384615387 32 0  25.96153846153845 32 0  23.07692307692309 32 0  20.19230769230768 32 0  17.30769230769232 32 0  14.42307692307691 32 0  11.53846153846155 32 0  8.653846153846132 32 0  5.769230769230774 32 0  2.884615384615358 32 0  2.884615384615382 62 0  5.769230769230764 62 0  8.653846153846146 62 0  11.53846153846153 62 0  14.42307692307691 62 0  17.30769230769229 62 0  20.19230769230767 62 0  23.07
[...]
<PointData  Scalars="f_21"> 
<DataArray  type="Float64"  Name="f_21"  format="ascii">2.3149053724681558e+01  2.3149053724681558e+01  1.8043486697476570e+01  1.8043486697476570e+01  3.4696150295964955e+01  3.4696150295964955e+01  3.5180228548610252e+01  3.5180228548610252e+01  3.4371536831668600e+01  3.4371536831668600e+01  4.5000000000000000e+01  4.0000000000000007e+01  2.3156904538696448e+01  2.3166380903667484e+01  2.3177506772317866e+01  2.3190263701610888e+01  2.3204644888538201e+01  2.3220629820271949e+01  2.3238194422009030e+01  2.3257294699453233e+01  2.3277876979116886e+01  2.3299861441439969e+01  2.3323147553447004e+01  2.3347600053386994e+01  2.3373047220433492e+01  2.3399273372753523e+01  2.3426011947413272e+01  2.3452939925159402e+01  2.3479674128534640e+01  2.3505770821384719e+01  2.3530730060621611e+01  2.3554006324161595e+01  2.3575026549775409e+01  2.3593215828581382e+01  2.3608030099124711e+01  2.3618992188793268e+01  2.3625728777451137e+01  2.3628001634319588e+01  2.3625728757964829e+01  2.3618992054058239e+01  2.3608029979643955e+01  2.3593215721411052e+01  2.3575026424611782e+01  2.3554006215830810e+01  2.3530729939414048e+01  2.3505770704605599e+01  2.3479674023494919e+01  2.3452939813148038e+01  2.3426011835385335e+01  2.3399273268020757e+01  2.3373047135524025e+01  2.3347600085159190e+01  2.3323147941017169e+01  2.3299862280056374e+01  2.3277877117533780e+01  2.3257295206016170e+01  2.3238193833680043e+01  2.3220629553566294e+01  2.3204643488469660e+01  2.3190262809429846e+01  2.3177506282309437e+01  2.3166383844812398e+01  2.3156899981218807e+01  2.3149054946160611e+01  2.3142844581885139e+01  2.3138261583583013e+01  2.3135295765819500e+01  2.3133933277539455e+01  2.3134155783551016e+01  2.3135941314227118e+01  2.3139259985429483e+01  2.3144075372183952e+01  2.3150340092682388e+01  2.3157993200775920e+01  2.3166959187693024e+01  2.3177140970041439e+01  2.3188418397372299e+01  2.3200642262739173e+01  2.3213630630177718e+01  2.3227164822094863e+01  2.3240987659125235e+01  2.3254801928455898e+01  2.3268274695208749e+01  2.3281042491801713e+01  2.3292724606130044e+01  2.3302940460800706e+01  2.3311326697059656e+01  2.3317570273637600e+01  2.3321421995996236e+01  2.3322723675943173e+01  2.3321420548867131e+01  2.3317569514725090e+01  2.3311326877676798e+01  2.3302940172936442e+01  2.3292724964295580e+01  2.3281043118817834e+01  2.3268274699127968e+01  2.3254802292756981e+01  2.3240987851210459e+01  2.3227165013109275e+01  2.3213630753757002e+01  2.3200642131547273e+01  2.3188418747725869e+01  2.3177140959303387e+01  2.3166959108336332e+01  2.3157992631034784e+01  2.3150339541442030e+01  2.3144075694081991e+01  2.3139260085527191e+01  2.3135941461523835e+01  2.3134155588397373e+01  2.3133932529122593e+01  2.3135295721470989e+01  2.3138262138702412e+01  2.3142848748189127e+01  1.8043722367925486e+01  1.8044008579373070e+01  1.8044347463897751e+01  1.8044739324496796e+01  1.8045184733198063e+01  1.8045684235370413e+01  1.8046238511240059e+01  1.8046847998748088e+01  1.8047512993548061e+01  1.8048233428845410e+01  1.8049008652495022e+01  1.8049837219427740e+01  1.8050716498065299e+01  1.8051642216842005e+01  1.8052607974231666e+01  1.8053604591836173e+01  1.8054619526108866e+01  1.8055636336979791e+01  1.8056634358673747e+01  1.8057588800082971e+01  1.8058471355731513e+01  1.8059252238285975e+01  1.8059899013004713e+01  1.8060384014014854e+01  1.8060685109456401e+01  1.8060787227618007e+01  1.8060684895661087e+01  1.8060383144801232e+01  1.8059897717747070e+01  1.8059250981615705e+01  1.8058470859716476e+01  1.8057588106586358e+01  1.8056633908921533e+01  1.8055636130311086e+01  1.8054619483084146e+01  1.8053604586584829e+01  1.8052607969904656e+01  1.8051642212319727e+01  1.8050716484478606e+01  1.8049837207549224e+01  1.8049008639438554e+01  1.8048233404432970e+01  1.8047512655001409e+01  1.8046847522953417e+01  1.8046238237862894e+01  1.8045684179326130e+01  1.8045184712315208e+01  1.8044739336354922e+01  1.8044347836929113e+01  1.8044009170818263e+01  1.8043722595154144e+01  1.8043487621963369e+01  1.8043304436527286e+01  1.8043172541405777e+01  1.8043091768858616e+01  1.8043061964578804e+01  1.8043082656541728e+01  1.8043154137011882e+01  1.8043276571689717e+01  1.8043449783955648e+01  1.8043673420848748e+01  1.8043947158613403e+01  1.8044270311577133e+01  1.8044641645854469e+01  1.8045059219931890e+01  1.8045520082941181e+01  1.8046019670860254e+01  1.8046551491160979e+01  1.8047107054623801e+01  1.8047675888178745e+01  1.8048244422097049e+01  1.8048795896527714e+01  1.8049311434980034e+01  1.8049770989683097e+01  1.8050156007300455e+01  1.8050444525710059e+01  1.8050624174138047e+01  1.8050684189820490e+01  1.8050623626718640e+01  1.8050445330145543e+01  1.8050156389070132e+01  1.8049771979941863e+01  1.8049311176477460e+01  1.8048795345064814e+01  1.8048243877760338e+01  1.8047675636341260e+01  1.8047106715131154e+01  1.8046550821352564e+01  1.8046019036154593e+01  1.8045519989435121e+01  1.8045059875478024e+01  1.8044642798999188e+01  1.8044272135235925e+01  1.8043948903470842e+01  1.8043674586290891e+01  1.8043450545620537e+01  1.8043276856437021e+01  1.8043154261268050e+01  1.8043082517757913e+01  1.8043061474577122e+01  1.8043091312938191e+01  1.8043172457087863e+01  1.8043304380533147e+01  3.4785332038787182e+01  3.4894125842776525e+01  3.5022726371630846e+01  3.5171389345151404e+01  3.5340422379484465e+01  3.5530198775191209e+01  3.5741167235768621e+01  3.5973864151788007e+01  3.6228931295702125e+01  3.6507139770752993e+01  3.6809422683625016e+01  3.7136905667145676e+01  3.7490964459617039e+01  3.7873269677395747e+01  3.8285856278426486e+01  3.8731163653929663e+01  3.9212058700363173e+01  3.9731713861081694e+01  4.0293183161055239e+01  4.0898196310200994e+01  4.1544150106216499e+01  4.2217196418301235e+01  4.2878356910605255e+01  4.3446298156214390e+01  4.3811415931260150e+01  4.3927202540990898e+01  4.3811410211805395e+01  4.3446307876045815e+01  4.2878394334467586e+01  4.2217182336835677e+01  4.1544145361764777e+01  4.0898194251766149e+01  4.0293180496133111e+01  3.9731713116773307e+01  3.9212056858005042e+01  3.8731162078596789e+01  3.8285854498898807e+01  3.7873269276263713e+01  3.7490963643018148e+01  3.7136905195192320e+01  3.6809421101602410e+01  3.6507138966525631e+01  3.6228930071797848e+01  3.5973862978844522e+01  3.5741166776483098e+01  3.5530198081281370e+01  3.5340421618026213e+01  3.5171388513271872e+01  3.5022725682514185e+01  3.4894123977512891e+01  3.4785331165850373e+01  3.4696147415860381e+01  3.4626419537644388e+01  3.4576042140931676e+01  3.4544953728045627e+01  3.4533140584156236e+01  3.4540637226313144e+01  3.4567530992331228e+01  3.4613968905784063e+01  3.4680163226527085e+01  3.4766406199539084e+01  3.4873080797472959e+01  3.5000685718091219e+01  3.5149848684987042e+01  3.5321374102644747e+01  3.5516261348167653e+01  3.5735748889010068e+01  3.5981355753504083e+01  3.6254872959767717e+01  3.6558293005304620e+01  3.6893533235291358e+01  3.7261635398161864e+01  3.7660828388615698e+01  3.8081994768884876e+01  3.8499854058862809e+01  3.8861537851427073e+01  3.9095632979283238e+01  3.9170292559306006e+01  3.9095626276732411e+01  3.8861532253848992e+01  3.8499841330191806e+01  3.8082034033238287e+01  3.7660833263841937e+01  3.7261640150585457e+01  3.6893536216220504e+01  3.6558295264367459e+01  3.6254871699491822e+01  3.5981356367302276e+01  3.5735751616540149e+01  3.5516262803987360e+01  3.5321376719390955e+01  3.5149851617266371e+01  3.5000686227841165e+01  3.4873083320093016e+01  3.4766408157365213e+01  3.4680165667168232e+01  3.4613971535694589e+01  3.4567533595286257e+01  3.4540639661320689e+01  3.4533143111814894e+01  3.4544955868405566e+01  3.4576044020205174e+01  3.4626420647184268e+01  3.5108516771980959e+01  3.5056686125045196e+01  3.5024674205514948e+01  3.5012465669275954e+01  3.5020094816138666e+01  3.5047649734309758e+01  3.5095280738437786e+01  3.5163203114977023e+01  3.5251718481910039e+01  3.5361226771589976e+01  3.5492244974637032e+01  3.5645443502897564e+01  3.5821684247981722e+01  3.6022052288103872e+01  3.6247943628420110e+01  3.6501109461341940e+01  3.6783722536130377e+01  3.7098410854160285e+01  3.7448141157955703e+01  3.7835734932927821e+01  3.8262348894372273e+01  3.8723329602557662e+01  3.9196937855691239e+01  3.9623702966787960e+01  3.9893579585395770e+01  3.9962882349183616e+01  3.9893584968414764e+01  3.9623665262242021e+01  3.9197106287562335e+01  3.8723272145708087e+01  3.8262367656221265e+01  3.7835735033137240e+01  3.7448139545695177e+01  3.7098408562255756e+01  3.6783721641034894e+01  3.6501108480943287e+01  3.6247943738242085e+01  3.6022051115469210e+01  3.5821680672779777e+01  3.5645442017111243e+01  3.5492242937487987e+01  3.5361224667582093e+01  3.5251717071359067e+01  3.5163201269566386e+01  3.5095278409450358e+01  3.5047648417167920e+01  3.5020093158646027e+01  3.5012463943425281e+01  3.5024672494079937e+01  3.5056684421904933e+01  3.5108514992870099e+01  3.5180226819442140e+01  3.5271928731826605e+01  3.5383775526460106e+01  3.5515971961748399e+01  3.5668774135481840e+01  3.5842496506047070e+01  3.6037519623163959e+01  3.6254300531450923e+01  3.6493388385265078e+01  3.6755443727711494e+01  3.7041264972750028e+01  3.7351823253139941e+01  3.7688307679860685e+01  3.8052183872716689e+01  3.8445269765221425e+01  3.8869825768697545e+01  3.9328658683789783e+01  3.9825222690803102e+01  4.0363660225503892e+01  4.0948640712864155e+01  4.1584614711802416e+01  4.2273541421426806e+01  4.3008328068171096e+01  4.3756010559853856e+01  4.4423738001258641e+01  4.4842573253037550e+01  4.4948626691358626e+01  4.4842594944511767e+01  4.4423814197864864e+01  4.3755801415704788e+01  4.3008356672224217e+01  4.2273564279409868e+01  4.1584628261148623e+01  4.0948645929752395e+01  4.0363648639368272e+01  3.9825225401375008e+01  3.9328661268116598e+01  3.8869827014171086e+01  3.8445271992190690e+01  3.8052188793975823e+01  3.7688307034776926e+01  3.7351828958301866e+01  3.7041264804171242e+01  3.6755444369580758e+01  3.6493390296419108e+01  3.6254302864881836e+01  3.6037520750673281e+01  3.5842499043724011e+01  3.5668775711153543e+01  3.5515973570798970e+01  3.5383777472463706e+01  3.5271929867685841e+01  3.4456896221046705e+01  3.4560653532871896e+01  3.4682919016875069e+01  3.4823806071557087e+01  3.4983431756865784e+01  3.5161902952028612e+01  3.5359309955112650e+01  3.5575711706780247e+01  3.5811116577455806e+01  3.6065454802671461e+01  3.6338545645571713e+01  3.6630043411198429e+01  3.6939383120400848e+01  3.7265669057684029e+01  3.7607560606311957e+01  3.7963117915956708e+01  3.8329518728406846e+01  3.8702796364543858e+01  3.9077389193977012e+01  3.9445700374895175e+01  3.9797651601387926e+01  4.0120159470093476e+01  4.0397618340347783e+01  4.0613026777775538e+01  4.0750195303909237e+01  4.0797380237789895e+01  4.0750207400249586e+01  4.0612996815134281e+01  4.0397604243979920e+01  4.0120123263190301e+01  3.9797623231863795e+01  3.9445716888538627e+01  3.9077382000760586e+01  3.8702795050307898e+01  3.8329517035313955e+01  3.7963115566746467e+01  3.7607561298433225e+01  3.7265668883004786e+01  3.6939377306835738e+01  3.6630044358676415e+01  3.6338543778843444e+01  3.6065453400183600e+01  3.5811115068045538e+01  3.5575711033195795e+01  3.5359308443035438e+01  3.5161901225147638e+01  3.4983429132724240e+01  3.4823804410843046e+01  3.4682916771280844e+01  3.4560652142913419e+01  3.4456895474224673e+01  3.4371535611245207e+01  3.4304470234625761e+01  3.4255606118674372e+01  3.4224860057012641e+01  3.4212156936086998e+01  3.4217427860752437e+01  3.4240605377225151e+01  3.4281617470405777e+01  3.4340377703043011e+01  3.4416775118979835e+01  3.4510654749819025e+01  3.4621795045040408e+01  3.4749873958122429e+01  3.4894432615025018e+01  3.5054809878865584e+01  3.5230046864383752e+01  3.5418809980681914e+01  3.5619195157326615e+01  3.5828547446832410e+01  3.6043189674706213e+01  3.6258082302432300e+01  3.6466533819404717e+01  3.6659987550357961e+01  3.6828091446772838e+01  3.6959585936467960e+01  3.7043743923857939e+01  3.7072754444279468e+01  3.7043743913683038e+01  3.6959565003120801e+01  3.6828122114414896e+01  3.6659992606197854e+01  3.6466543950521924e+01  3.6258079287374201e+01  3.6043183088224389e+01  3.5828547999481366e+01  3.5619197511548386e+01  3.5418810699488894e+01  3.5230046999484046e+01  3.5054807455210600e+01  3.4894432535915783e+01  3.4749875022811750e+01  3.4621796171051336e+01  3.4510656263991699e+01  3.4416777464109877e+01  3.4340379475071309e+01  3.4281618954201051e+01  3.4240607052115500e+01  3.4217429703419853e+01  3.4212159025568887e+01  3.4224861556016506e+01  3.4255608453360644e+01  3.4304471514693695e+01  2.4424715378365182e+01  2.5697185311101510e+01  2.6964760615430603e+01  2.8225736896427513e+01  2.9478412982523455e+01  3.0721057897176387e+01  3.1951954231383215e+01  3.3169357379328098e+01  3.4530790528359837e+01  3.4673461422019642e+01  3.4799330019345518e+01  3.4908185623929242e+01  3.4999835090163671e+01  3.5074100442174746e+01  3.5130827314611096e+01  3.5169886587315808e+01  3.5191178844371791e+01  3.5194636806971403e+01  3.3238705506160066e+01  3.1765335573290670e+01  3.0277537968026333e+01  2.8776834830096607e+01  2.7264781357232117e+01  2.5742957366379763e+01  2.4212949326855707e+01  2.2676377162763547e+01  2.1134850222119400e+01  1.9590011870302163e+01  2.4424715378365182e+01  2.5697185311101510e+01  2.6964760615430603e+01  2.8225736896427513e+01  2.9478412982523455e+01  3.0721057897176387e+01  3.1951954231383215e+01  3.3169357379328098e+01  3.4530790528359837e+01  3.4673461422019642e+01  3.4799330019345518e+01  3.4908185623929242e+01  3.4999835090163671e+01  3.5074100442174746e+01  3.5130827314611096e+01  3.5169886587315808e+01  3.5191178844371791e+01  3.5194636806971403e+01  3.3238705506160066e+01  3.1765335573290670e+01  3.0277537968026333e+01  2.8776834830096607e+01  2.7264781357232117e+01  2.5742957366379763e+01  2.4212949326855707e+01  2.2676377162763547e+01  2.1134850222119400e+01  1.9590011870302163e+01  4.5000000000000000e+01  4.5000000000000000e+01  4.5000000000000000e+01  4.5000000000000000e+01  4.5000000000000000e+01  4.5000000000000000e+01  4.5000000000000000e+01  4.5000000000000000e+01  4.5000000000000007e+01  4.5000000000000000e+01  4.5000000000000000e+01  4.5000000000000000e+01  4.5000000000000000e+01  4.5000000000000000e+01  4.5000000000000000e+01  4.5000000000000000e+01  4.5000000000000000e+01  4.5000000000000000e+01  4.5000000000000000e+01  4.5000000000000000e+01  4.4999999999999993e+01  4.5000000000000000e+01  4.4999999999999993e+01  4.5000000000000000e+01  4.5000000000000000e+01  4.5000000000000000e+01  4.5000000000000000e+01  4.5000000000000000e+01  4.5000000000000000e+01  4.5000000000000000e+01  4.5000000000000000e+01  4.5000000000000000e+01  4.5000000000000000e+01  4.5000000000000000e+01  4.5000000000000000e+01  4.5000000000000000e+01  4.5000000000000000e+01  4.5000000000000000e+01  4.5000000000000000e+01  4.0000000000000000e+01  4.0000000000000000e+01  4.0000000000000000e+01  4.0000000000000000e+01  4.0000000000000000e+01  4.0000000000000000e+01  4.0000000000000000e+01  4.0000000000000000e+01  4.0000000000000000e+01  4.0000000000000000e+01  4.0000000000000000e+01  4.0000000000000000e+01  4.0000000000000000e+01  4.0000000000000000e+01  4.0000000000000000e+01  4.0000000000000000e+01  4.0000000000000000e+01  4.0000000000000000e+01  4.0000000000000000e+01  4.0000000000000000e+01  4.0000000000000000e+01  4.0000000000000000e+01  4.0000000000000000e+01  4.0000000000000000e+01  4.0000000000000000e+01  4.0000000000000000e+01  4.0000000000000000e+01  4.0000000000000000e+01  4.0000000000000000e+01  4.0000000000000000e+01  4.0000000000000000e+01  4.0000000000000000e+01  4.0000000000000007e+01  4.0000000000000000e+01  4.0000000000000000e+01  4.0000000000000007e+01  4.0000000000000000e+01  4.0000000000000000e+01  4.0000000000000000e+01  3.9730222878468680e+01  4.4585543659667103e+01  4.4585538316035212e+01  3.9734579294231914e+01  3.9741996533377836e+01  4.4578868579645700e+01  4.4563074715079956e+01  3.9704214624904949e+01  3.6344006707105557e+01  3.6338198620628113e+01  3.9495705778025609e+01  3.9480392354424126e+01  4.1232155717643415e+01  4.1342250607692748e+01  3.7646283470305491e+01  3.7647034994481587e+01  3.4979752992958247e+01  3.5111649753995742e+01  3.9728410304710415e+01  4.4553531727960902e+01  4.4580125323611526e+01  3.9699846107092398e+01  3.5091017284153907e+01  3.5307676010448318e+01  3.5739537533333156e+01  3.6146063010005356e+01  3.7846423767494912e+01  3.6660024727383401e+01  3.5747566450485927e+01  3.6915679319352492e+01  3.4776202020897500e+01  3.7209193517176693e+01  3.5055121342830780e+01  3.6387274048664111e+01  3.5315581976271339e+01  3.8260686404880857e+01  3.8000883635680054e+01  3.5082614174740172e+01  3.6157843188062195e+01  3.9584578361384430e+01  3.4477079738106958e+01  3.5301304111829687e+01  3.5849602291641979e+01  3.4356206417463092e+01  3.4847003834360038e+01  3.4519111448604654e+01  3.4842714028916312e+01  3.5616164369479520e+01  3.6656900097929530e+01  3.6672966293932504e+01  3.5261950226468691e+01  3.5342974593731697e+01  3.9583689964160179e+01  3.4509407074539112e+01  3.7615200368710276e+01  3.5225567507351357e+01  3.4367040131063106e+01  4.4612614934256648e+01  3.9744667097443767e+01  4.4610595971667692e+01  3.9741339173507747e+01  4.4655906071208221e+01  3.9769751273577732e+01  4.4627051006233621e+01  3.9771882651775705e+01  3.6966214986619619e+01  4.0569130093556808e+01  4.0496555709959225e+01  3.6961766323783607e+01  3.5084497701781551e+01  4.1126082181936845e+01  3.7288789837763808e+01  3.5590273272608520e+01  3.5029527134604599e+01  3.8503995702769892e+01  4.2652145583910766e+01  4.2685410130712377e+01  3.8476135825630038e+01  3.7241174041544355e+01  4.0971160434868771e+01  3.8701733542904996e+01  3.6951041476599642e+01  3.5897032602099657e+01  3.5861263484215435e+01  3.8692314913201194e+01  3.4361386590163860e+01  3.6143982717647845e+01  3.7216596373340991e+01  3.5767377124839655e+01  3.8666610855426114e+01  3.5149430948403570e+01  3.6636500027473730e+01  3.4382921676144484e+01  3.4401683346607861e+01  3.5027368629811868e+01  3.6095664998966591e+01  3.4778694891071517e+01  3.5089931520764829e+01  3.5221025587917111e+01  3.4924578492275806e+01  3.4767296294211292e+01  3.9811003790273027e+01  4.4686003604657778e+01  4.4656487416738798e+01  3.9808353432019629e+01  3.5092596678040280e+01  3.5336130994966766e+01  3.4408983172886522e+01  3.4674070340908699e+01  4.4805028777960800e+01  3.9872158492206516e+01  3.9870877542196887e+01  4.4801543772867696e+01  3.9724375637791923e+01  3.9466827501965462e+01  3.9450635532346865e+01  3.9194807049766140e+01  3.9155130534643732e+01  3.8920806481532843e+01  3.8961528327124604e+01  3.8694967436501663e+01  3.8854274244743912e+01  3.8708478349655280e+01  3.8432287653680454e+01  3.8452258457318983e+01  3.8174498582639181e+01  3.8154515665931193e+01  3.7897983049213003e+01  3.7866370411241611e+01  3.7621978271017959e+01  3.7649521925430143e+01  3.7379929869097644e+01  3.7397285387184404e+01  3.7125633942329017e+01  3.7139664174462908e+01  3.6881740790755046e+01  3.7572686482329232e+01  3.7804060191404332e+01  3.6889141265558727e+01  3.6646893901991952e+01  3.6652564675727824e+01  3.6418482386019058e+01  3.6419602705309721e+01  3.6204609932519723e+01  3.6196418837573681e+01  3.6000559128440024e+01  3.8181383899740794e+01  3.5991571267918680e+01  3.5810447842372575e+01  3.6189843145774432e+01  3.7113585221517027e+01  3.5803536380202139e+01  3.5637529774759741e+01  3.5634763280442776e+01  3.5483725061128055e+01  3.5625982040050864e+01  3.7497120634619733e+01  3.7716026216070468e+01  3.5485103034763007e+01  3.5348852261136081e+01  3.5328269967674608e+01  3.5207597852435988e+01  3.5232979413296285e+01  3.5105782398286323e+01  3.5136299844729571e+01  3.5022665165979866e+01  3.5058706543760131e+01  3.4957918757289320e+01  3.4999978128003391e