<?xml version="1.0"?>
<VTKFile type="UnstructuredGrid"  version="0.1"  >
<UnstructuredGrid>
<Piece  NumberOfPoints="4412" NumberOfCells="8474">
<Points>
<DataArray  type="Float64"  NumberOfComponents="3"  format="ascii">0 87 0  300 87 0  300 0 0  0 0 0  0 30 0  300 30 0  0 32 0  300 32 0  300 62 0  0 62 0  81 39.5 0  231 39.5 0  2.884615384615382 87 0  5.769230769230764 87 0  8.653846153846146 87 0  11.53846153846153 87 0  14.42307692307691 87 0  17.30769230769229 87 0  20.19230769230767 87 0  23.07692307692306 87 0  25.96153846153844 87 0  28.84615384615382 87 0  31.73076923076921 87 0  34.61538461538459 87 0  37.49999999999997 87 0  40.38461538461536 87 0  43.26923076923075 87 0  46.15384615384612 87 0  49.03846153846152 87 0  51.92307692307691 87 0  54.80769230769229 87 0  57.69230769230767 87 0  60.57692307692306 87 0  63.46153846153844 87 0  66.34615384615383 87 0  69.23076923076921 87 0  72.1153846153846 87 0  74.99999999999999 87 0  77.88461538461536 87 0  80.76923076923075 87 0  83.65384615384613 87 0  86.53846153846152 87 0  89.42307692307691 87 0  92.30769230769228 87 0  95.19230769230766 87 0  98.07692307692305 87 0  100.9615384615384 87 0  103.8461538461538 87 0  106.7307692307692 87 0  109.6153846153846 87 0  112.5 87 0  115.3846153846154 87 0  118.2692307692307 87 0  121.1538461538461 87 0  124.0384615384615 87 0  126.9230769230769 87 0  129.8076923076923 87 0  132.6923076923077 87 0  135.5769230769231 87 0  138.4615384615385 87 0  141.3461538461538 87 0  144.2307692307692 87 0  147.1153846153846 87 0  150 87 0  152.8846153846154 87 0  155.7692307692307 87 0  158.6538461538461 87 0  161.5384615384615 87 0  164.4230769230769 87 0  167.3076923076923 87 0  170.1923076923077 87 0  173.0769230769231 87 0  175.9615384615385 87 0  178.8461538461538 87 0  181.7307692307692 87 0  184.6153846153846 87 0  187.5 87 0  190.3846153846154 87 0  193.2692307692308 87 0  196.1538461538462 87 0  199.0384615384615 87 0  201.9230769230769 87 0  204.8076923076923 87 0  207.6923076923077 87 0  210.5769230769231 87 0  213.4615384615385 87 0  216.3461538461538 87 0  219.2307692307692 87 0  222.1153846153846 87 0  225 87 0  227.8846153846154 87 0  230.7692307692308 87 0  233.6538461538462 87 0  236.5384615384615 87 0  239.4230769230769 87 0  242.3076923076923 87 0  245.1923076923077 87 0  248.0769230769231 87 0  250.9615384615385 87 0  253.8461538461538 87 0  256.7307692307692 87 0  259.6153846153846 87 0  262.5 87 0  265.3846153846154 87 0  268.2692307692308 87 0  271.1538461538461 87 0  274.0384615384615 87 0  276.9230769230769 87 0  279.8076923076923 87 0  282.6923076923077 87 0  285.5769230769231 87 0  288.4615384615385 87 0  291.3461538461539 87 0  294.2307692307692 87 0  297.1153846153846 87 0  2.884615384615382 0 0  5.769230769230764 0 0  8.653846153846146 0 0  11.53846153846153 0 0  14.42307692307691 0 0  17.30769230769229 0 0  20.19230769230767 0 0  23.07692307692306 0 0  25.96153846153844 0 0  28.84615384615382 0 0  31.73076923076921 0 0  34.61538461538459 0 0  37.49999999999997 0 0  40.38461538461536 0 0  43.26923076923075 0 0  46.15384615384612 0 0  49.03846153846152 0 0  51.92307692307691 0 0  54.80769230769229 0 0  57.69230769230767 0 0  60.57692307692306 0 0  63.46153846153844 0 0  66.34615384615383 0 0  69.23076923076921 0 0  72.1153846153846 0 0  74.99999999999999 0 0  77.88461538461536 0 0  80.76923076923075 0 0  83.65384615384613 0 0  86.53846153846152 0 0  89.42307692307691 0 0  92.30769230769228 0 0  95.19230769230766 0 0  98.07692307692305 0 0  100.9615384615384 0 0  103.8461538461538 0 0  106.7307692307692 0 0  109.6153846153846 0 0  112.5 0 0  115.3846153846154 0 0  118.2692307692307 0 0  121.1538461538461 0 0  124.0384615384615 0 0  126.9230769230769 0 0  129.8076923076923 0 0  132.6923076923077 0 0  135.5769230769231 0 0  138.4615384615385 0 0  141.3461538461538 0 0  144.2307692307692 0 0  147.1153846153846 0 0  150 0 0  152.8846153846154 0 0  155.7692307692307 0 0  158.6538461538461 0 0  161.5384615384615 0 0  164.4230769230769 0 0  167.3076923076923 0 0  170.1923076923077 0 0  173.0769230769231 0 0  175.9615384615385 0 0  178.8461538461538 0 0  181.7307692307692 0 0  184.6153846153846 0 0  187.5 0 0  190.3846153846154 0 0  193.2692307692308 0 0  196.1538461538462 0 0  199.0384615384615 0 0  201.9230769230769 0 0  204.8076923076923 0 0  207.6923076923077 0 0  210.5769230769231 0 0  213.4615384615385 0 0  216.3461538461538 0 0  219.2307692307692 0 0  222.1153846153846 0 0  225 0 0  227.8846153846154 0 0  230.7692307692308 0 0  233.6538461538462 0 0  236.5384615384615 0 0  239.4230769230769 0 0  242.3076923076923 0 0  245.1923076923077 0 0  248.0769230769231 0 0  250.9615384615385 0 0  253.8461538461538 0 0  256.7307692307692 0 0  259.6153846153846 0 0  262.5 0 0  265.3846153846154 0 0  268.2692307692308 0 0  271.1538461538461 0 0  274.0384615384615 0 0  276.9230769230769 0 0  279.8076923076923 0 0  282.6923076923077 0 0  285.5769230769231 0 0  288.4615384615385 0 0  291.3461538461539 0 0  294.2307692307692 0 0  297.1153846153846 0 0  2.884615384615382 30 0  5.769230769230764 30 0  8.653846153846146 30 0  11.53846153846153 30 0  14.42307692307691 30 0  17.30769230769229 30 0  20.19230769230767 30 0  23.07692307692306 30 0  25.96153846153844 30 0  28.84615384615382 30 0  31.73076923076921 30 0  34.61538461538459 30 0  37.49999999999997 30 0  40.38461538461536 30 0  43.26923076923075 30 0  46.15384615384612 30 0  49.03846153846152 30 0  51.92307692307691 30 0  54.80769230769229 30 0  57.69230769230767 30 0  60.57692307692306 30 0  63.46153846153844 30 0  66.34615384615383 30 0  69.23076923076921 30 0  72.1153846153846 30 0  74.99999999999999 30 0  77.88461538461536 30 0  80.76923076923075 30 0  83.65384615384613 30 0  86.53846153846152 30 0  89.42307692307691 30 0  92.30769230769228 30 0  95.19230769230766 30 0  98.07692307692305 30 0  100.9615384615384 30 0  103.8461538461538 30 0  106.7307692307692 30 0  109.6153846153846 30 0  112.5 30 0  115.3846153846154 30 0  118.2692307692307 30 0  121.1538461538461 30 0  124.0384615384615 30 0  126.9230769230769 30 0  129.8076923076923 30 0  132.6923076923077 30 0  135.5769230769231 30 0  138.4615384615385 30 0  141.3461538461538 30 0  144.2307692307692 30 0  147.1153846153846 30 0  150 30 0  152.8846153846154 30 0  155.7692307692307 30 0  158.6538461538461 30 0  161.5384615384615 30 0  164.4230769230769 30 0  167.3076923076923 30 0  170.1923076923077 30 0  173.0769230769231 30 0  175.9615384615385 30 0  178.8461538461538 30 0  181.7307692307692 30 0  184.6153846153846 30 0  187.5 30 0  190.3846153846154 30 0  193.2692307692308 30 0  196.1538461538462 30 0  199.0384615384615 30 0  201.9230769230769 30 0  204.8076923076923 30 0  207.6923076923077 30 0  210.5769230769231 30 0  213.4615384615385 30 0  216.3461538461538 30 0  219.2307692307692 30 0  222.1153846153846 30 0  225 30 0  227.8846153846154 30 0  230.7692307692308 30 0  233.6538461538462 30 0  236.5384615384615 30 0  239.4230769230769 30 0  242.3076923076923 30 0  245.1923076923077 30 0  248.0769230769231 30 0  250.9615384615385 30 0  253.8461538461538 30 0  256.7307692307692 30 0  259.6153846153846 30 0  262.5 30 0  265.3846153846154 30 0  268.2692307692308 30 0  271.1538461538461 30 0  274.0384615384615 30 0  276.9230769230769 30 0  279.8076923076923 30 0  282.6923076923077 30 0  285.5769230769231 30 0  288.4615384615385 30 0  291.3461538461539 30 0  294.2307692307692 30 0  297.1153846153846 30 0  297.1153846153846 32 0  294.2307692307692 32 0  291.3461538461539 32 0  288.4615384615385 32 0  285.5769230769231 32 0  282.6923076923077 32 0  279.8076923076923 32 0  276.923076923077 32 0  274.0384615384615 32 0  271.1538461538462 32 0  268.2692307692308 32 0  265.3846153846154 32 0  262.5 32 0  259.6153846153846 32 0  256.7307692307693 32 0  253.8461538461539 32 0  250.9615384615385 32 0  248.0769230769231 32 0  245.1923076923077 32 0  242.3076923076923 32 0  239.4230769230769 32 0  236.5384615384615 32 0  233.6538461538462 32 0  230.7692307692308 32 0  227.8846153846154 32 0  225 32 0  222.1153846153846 32 0  219.2307692307693 32 0  216.3461538461539 32 0  213.4615384615385 32 0  210.5769230769231 32 0  207.6923076923077 32 0  204.8076923076923 32 0  201.923076923077 32 0  199.0384615384615 32 0  196.1538461538462 32 0  193.2692307692308 32 0  190.3846153846154 32 0  187.5 32 0  184.6153846153846 32 0  181.7307692307693 32 0  178.8461538461539 32 0  175.9615384615385 32 0  173.0769230769231 32 0  170.1923076923077 32 0  167.3076923076923 32 0  164.4230769230769 32 0  161.5384615384615 32 0  158.6538461538462 32 0  155.7692307692308 32 0  152.8846153846154 32 0  150 32 0  147.1153846153846 32 0  144.2307692307693 32 0  141.3461538461539 32 0  138.4615384615385 32 0  135.5769230769231 32 0  132.6923076923077 32 0  129.8076923076923 32 0  126.9230769230769 32 0  124.0384615384615 32 0  121.1538461538462 32 0  118.2692307692308 32 0  115.3846153846154 32 0  112.5 32 0  109.6153846153846 32 0  106.7307692307692 32 0  103.8461538461538 32 0  100.9615384615385 32 0  98.07692307692307 32 0  95.19230769230768 32 0  92.30769230769232 32 0  89.42307692307693 32 0  86.53846153846155 32 0  83.65384615384616 32 0  80.76923076923077 32 0  77.88461538461539 32 0  75 32 0  72.11538461538461 32 0  69.23076923076923 32 0  66.34615384615384 32 0  63.46153846153845 32 0  60.57692307692307 32 0  57.69230769230768 32 0  54.80769230769232 32 0  51.92307692307693 32 0  49.03846153846155 32 0  46.15384615384616 32 0  43.26923076923077 32 0  40.38461538461536 32 0  37.5 32 0  34.61538461538464 32 0  31.73076923076923 32 0  28.84615384615387 32 0  25.96153846153845 32 0  23.07692307692309 32 0  20.19230769230768 32 0  17.30769230769232 32 0  14.42307692307691 32 0  11.53846153846155 32 0  8.653846153846132 32 0  5.769230769230774 32 0  2.884615384615358 32 0  2.884615384615382 62 0  5.769230769230764 62 0  8.653846153846146 62 0  11.53846153846153 62 0  14.42307692307691 62 0  17.30769230769229 62 0  20.19230769230767 62 0  23.07
[...]
<PointData  Vectors="f_52"> 
<DataArray  type="Float64"  Name="f_52"  NumberOfComponents="3" format="ascii">2.3795886457713758e-03 -4.5961025360701957e-01 0.0000000000000000e+00  2.4793089778233669e-03 -4.5961048974429886e-01 0.0000000000000000e+00  1.0354313600720988e-04 5.6716243361612806e-01 0.0000000000000000e+00  3.1284688067243902e-05 5.6715612207359534e-01 0.0000000000000000e+00  2.7559764328702798e-02 4.3912687811093121e-01 0.0000000000000000e+00  2.7519975475456745e-02 4.3577686080816569e-01 0.0000000000000000e+00  2.8316960710379788e-02 8.4611311926623148e-02 0.0000000000000000e+00  2.8315695575270635e-02 8.2127033617212866e-02 0.0000000000000000e+00  2.6395214884857538e-02 -2.5661305243967869e-01 0.0000000000000000e+00  2.6429856175357574e-02 -2.4702714118117228e-01 0.0000000000000000e+00  -4.9844892730013107e-01 -3.1584689613167060e-04 0.0000000000000000e+00  -3.2077064346233747e-01 -1.4436702080720829e-04 0.0000000000000000e+00  2.9952169815647750e-03 -4.6274670754937069e-01 0.0000000000000000e+00  3.5707307138255727e-03 -4.6653791481018136e-01 0.0000000000000000e+00  4.1389401306761789e-03 -4.7099808561560080e-01 0.0000000000000000e+00  4.7066977773058570e-03 -4.7609920415728302e-01 0.0000000000000000e+00  5.2651957269866413e-03 -4.8185653010014717e-01 0.0000000000000000e+00  5.8178979933310518e-03 -4.8824875288938008e-01 0.0000000000000000e+00  6.3551132128767777e-03 -4.9527435258716324e-01 0.0000000000000000e+00  6.8779738918746322e-03 -5.0291105348744769e-01 0.0000000000000000e+00  7.3795182600803217e-03 -5.1114279807245588e-01 0.0000000000000000e+00  7.8519829046353289e-03 -5.1993508101109898e-01 0.0000000000000000e+00  8.2817752876214474e-03 -5.2925229549714992e-01 0.0000000000000000e+00  8.6595985092915630e-03 -5.3903540709573949e-01 0.0000000000000000e+00  8.9696293695564078e-03 -5.4921555776892628e-01 0.0000000000000000e+00  9.1960472210895136e-03 -5.5970673906903956e-01 0.0000000000000000e+00  9.3209023444533814e-03 -5.7040329192136818e-01 0.0000000000000000e+00  9.3233309922836263e-03 -5.8117577644975549e-01 0.0000000000000000e+00  9.1823503157925125e-03 -5.9187099024336576e-01 0.0000000000000000e+00  8.8774297343218386e-03 -6.0231129616246271e-01 0.0000000000000000e+00  8.3905486397428675e-03 -6.1229677429273965e-01 0.0000000000000000e+00  7.7086036311601932e-03 -6.2160936347261975e-01 0.0000000000000000e+00  6.8262320434022581e-03 -6.3001922136957345e-01 0.0000000000000000e+00  5.7476502200826665e-03 -6.3729677835067433e-01 0.0000000000000000e+00  4.4906865679958880e-03 -6.4322399369883121e-01 0.0000000000000000e+00  3.0840036768823866e-03 -6.4760982115362908e-01 0.0000000000000000e+00  1.5701051363074784e-03 -6.5030544789072453e-01 0.0000000000000000e+00  7.2824939337063138e-08 -6.5121518000697187e-01 0.0000000000000000e+00  -1.5703230264509360e-03 -6.5030585261967033e-01 0.0000000000000000e+00  -3.0844694806239372e-03 -6.4761004054709204e-01 0.0000000000000000e+00  -4.4911344004646674e-03 -6.4322389433976346e-01 0.0000000000000000e+00  -5.7481444283287494e-03 -6.3729643480249876e-01 0.0000000000000000e+00  -6.8265854649373460e-03 -6.3001895848827505e-01 0.0000000000000000e+00  -7.7088476399067790e-03 -6.2160922789021678e-01 0.0000000000000000e+00  -8.3907700237542265e-03 -6.1229653104143400e-01 0.0000000000000000e+00  -8.8775650270850777e-03 -6.0231114248484730e-01 0.0000000000000000e+00  -9.1825427567806470e-03 -5.9187086708754855e-01 0.0000000000000000e+00  -9.3234029204294060e-03 -5.8117570392453477e-01 0.0000000000000000e+00  -9.3208631821388305e-03 -5.7040320990710958e-01 0.0000000000000000e+00  -9.1961173024896568e-03 -5.5970674511568885e-01 0.0000000000000000e+00  -8.9694864142307613e-03 -5.4921519022798926e-01 0.0000000000000000e+00  -8.6594910370987200e-03 -5.3903581933376876e-01 0.0000000000000000e+00  -8.2824160775813900e-03 -5.2925435458672443e-01 0.0000000000000000e+00  -7.8530771440034879e-03 -5.1993962865040710e-01 0.0000000000000000e+00  -7.3827993617349239e-03 -5.1114537819583228e-01 0.0000000000000000e+00  -6.8820968784278260e-03 -5.0291249207216360e-01 0.0000000000000000e+00  -6.3577738836117538e-03 -4.9527182516242624e-01 0.0000000000000000e+00  -5.8175319169657472e-03 -4.8824569354036135e-01 0.0000000000000000e+00  -5.2648623094022811e-03 -4.8185149122659421e-01 0.0000000000000000e+00  -4.7043680164022073e-03 -4.7609868675466110e-01 0.0000000000000000e+00  -4.1393930160408959e-03 -4.7099632600298513e-01 0.0000000000000000e+00  -3.5717871538041542e-03 -4.6654720636726099e-01 0.0000000000000000e+00  -3.0034208099833240e-03 -4.6275352390651553e-01 0.0000000000000000e+00  -2.4359360384371767e-03 -4.5961571254262595e-01 0.0000000000000000e+00  -1.8704310540872610e-03 -4.5713159639223772e-01 0.0000000000000000e+00  -1.3076701127778989e-03 -4.5529832966460382e-01 0.0000000000000000e+00  -7.4937674977426714e-04 -4.5411203388504295e-01 0.0000000000000000e+00  -1.9602164025433756e-04 -4.5356713242338820e-01 0.0000000000000000e+00  3.4917302529947707e-04 -4.5365619211215463e-01 0.0000000000000000e+00  8.8644410949106456e-04 -4.5437121710247974e-01 0.0000000000000000e+00  1.4120657115073072e-03 -4.5569822522437575e-01 0.0000000000000000e+00  1.9226149593071212e-03 -4.5762490625879804e-01 0.0000000000000000e+00  2.4165310159889293e-03 -4.6013056855519735e-01 0.0000000000000000e+00  2.8857234288044162e-03 -4.6319088429321759e-01 0.0000000000000000e+00  3.3259789597574053e-03 -4.6677781774961991e-01 0.0000000000000000e+00  3.7279074556156441e-03 -4.7085073218008466e-01 0.0000000000000000e+00  4.0834907153805217e-03 -4.7536267243251007e-01 0.0000000000000000e+00  4.3814981774426848e-03 -4.8025246449368147e-01 0.0000000000000000e+00  4.6110697943202985e-03 -4.8544919220228216e-01 0.0000000000000000e+00  4.7573887988807536e-03 -4.9086355944268106e-01 0.0000000000000000e+00  4.8076315077602788e-03 -4.9639440953237474e-01 0.0000000000000000e+00  4.7487731395270986e-03 -5.0192175924117455e-01 0.0000000000000000e+00  4.5687625822932870e-03 -5.0731294917288683e-01 0.0000000000000000e+00  4.2591090030775222e-03 -5.1242185825723163e-01 0.0000000000000000e+00  3.8141277616102814e-03 -5.1709734531817841e-01 0.0000000000000000e+00  3.2434092655702689e-03 -5.2118541954981368e-01 0.0000000000000000e+00  2.5506195848627377e-03 -5.2453945129607937e-01 0.0000000000000000e+00  1.7597115953671603e-03 -5.2703937626292308e-01 0.0000000000000000e+00  8.9735509294291461e-04 -5.2857795587627543e-01 0.0000000000000000e+00  -1.9193183896632565e-06 -5.2909998849026696e-01 0.0000000000000000e+00  -8.9852642191941257e-04 -5.2857748962010076e-01 0.0000000000000000e+00  -1.7598678625735259e-03 -5.2703468515535812e-01 0.0000000000000000e+00  -2.5515207197176521e-03 -5.2453787209666547e-01 0.0000000000000000e+00  -3.2436788975094368e-03 -5.2118448949681806e-01 0.0000000000000000e+00  -3.8182820398570479e-03 -5.1709666335658278e-01 0.0000000000000000e+00  -4.2600057266011558e-03 -5.1242299601883534e-01 0.0000000000000000e+00  -4.5691981408649352e-03 -5.0731182397740415e-01 0.0000000000000000e+00  -4.7490620120815841e-03 -5.0192246938087925e-01 0.0000000000000000e+00  -4.8076560335607726e-03 -4.9639365070227626e-01 0.0000000000000000e+00  -4.7576527162938986e-03 -4.9086368849389878e-01 0.0000000000000000e+00  -4.6096688485170742e-03 -4.8544796205360091e-01 0.0000000000000000e+00  -4.3813940051419227e-03 -4.8025165597993813e-01 0.0000000000000000e+00  -4.0822014278260304e-03 -4.7536221192856803e-01 0.0000000000000000e+00  -3.7267366651368736e-03 -4.7084991362020545e-01 0.0000000000000000e+00  -3.3232920717927539e-03 -4.6677719464532730e-01 0.0000000000000000e+00  -2.8854932308577247e-03 -4.6319022374831831e-01 0.0000000000000000e+00  -2.4174297992637711e-03 -4.6012972919153744e-01 0.0000000000000000e+00  -1.9244875783499132e-03 -4.5762465165035610e-01 0.0000000000000000e+00  -1.4117047855231185e-03 -4.5569742473927455e-01 0.0000000000000000e+00  -8.8531168721014031e-04 -4.5436973199176478e-01 0.0000000000000000e+00  -3.4778060327621892e-04 -4.5365496704944014e-01 0.0000000000000000e+00  1.9863061197582458e-04 -4.5356467361945696e-01 0.0000000000000000e+00  7.5555614387090651e-04 -4.5410807864083480e-01 0.0000000000000000e+00  1.3082788692795513e-03 -4.5530401635468776e-01 0.0000000000000000e+00  1.8914118760482834e-03 -4.5712959403227638e-01 0.0000000000000000e+00  7.3066514235668812e-05 5.7021779595703836e-01 0.0000000000000000e+00  1.0666189417959720e-04 5.7396191748358683e-01 0.0000000000000000e+00  1.2704320069587476e-04 5.7838317751241808e-01 0.0000000000000000e+00  1.4605219753900973e-04 5.8349474435490378e-01 0.0000000000000000e+00  1.6499782513030504e-04 5.8930413118015257e-01 0.0000000000000000e+00  1.8351565798403348e-04 5.9581873194620749e-01 0.0000000000000000e+00  2.0161307438875171e-04 6.0304780245360146e-01 0.0000000000000000e+00  2.2123673664084208e-04 6.1099718615342602e-01 0.0000000000000000e+00  2.4032724211981311e-04 6.1967116815677270e-01 0.0000000000000000e+00  2.5924973084116447e-04 6.2906907963039993e-01 0.0000000000000000e+00  2.7790385599241852e-04 6.3918238970649155e-01 0.0000000000000000e+00  2.9561267484552408e-04 6.4999286528379285e-01 0.0000000000000000e+00  3.1206441293048090e-04 6.6146686688603851e-01 0.0000000000000000e+00  3.2661287355066713e-04 6.7354888280661385e-01 0.0000000000000000e+00  3.3828267051532439e-04 6.8615646712634804e-01 0.0000000000000000e+00  3.4615141600411668e-04 6.9917047050161207e-01 0.0000000000000000e+00  3.4882229884602561e-04 7.1242756569976851e-01 0.0000000000000000e+00  3.4513880392303739e-04 7.2571401936136193e-01 0.0000000000000000e+00  3.3386569909899232e-04 7.3875932944838840e-01 0.0000000000000000e+00  3.1267297515212041e-04 7.5124183544445966e-01 0.0000000000000000e+00  2.8489378156100177e-04 7.6278282377689077e-01 0.0000000000000000e+00  2.4432912648753578e-04 7.7300977281304795e-01 0.0000000000000000e+00  1.9923249174111349e-04 7.8147247737945680e-01 0.0000000000000000e+00  1.3084337961630238e-04 7.8782066352571190e-01 0.0000000000000000e+00  6.9005427144790683e-05 7.9176816721815324e-01 0.0000000000000000e+00  -4.1592936358423802e-07 7.9310551349728431e-01 0.0000000000000000e+00  -6.7841896027112495e-05 7.9176549999055124e-01 0.0000000000000000e+00  -1.3179615758386316e-04 7.8781386287183530e-01 0.0000000000000000e+00  -1.9155285933375563e-04 7.8145870260135974e-01 0.0000000000000000e+00  -2.4376834343845308e-04 7.7299151041713254e-01 0.0000000000000000e+00  -2.8179863195992416e-04 7.6278359807006757e-01 0.0000000000000000e+00  -3.1154591082973465e-04 7.5123274559231323e-01 0.0000000000000000e+00  -3.3042681597867605e-04 7.3875588805355785e-01 0.0000000000000000e+00  -3.4316458682666015e-04 7.2571117340050550e-01 0.0000000000000000e+00  -3.4850408162328216e-04 7.1242755221539533e-01 0.0000000000000000e+00  -3.4628690090589531e-04 6.9917041099025934e-01 0.0000000000000000e+00  -3.3826356586881334e-04 6.8615626903414839e-01 0.0000000000000000e+00  -3.2650940313501972e-04 6.7354881780093812e-01 0.0000000000000000e+00  -3.1193579561635351e-04 6.6146651296773851e-01 0.0000000000000000e+00  -2.9545461524880997e-04 6.4999293620728282e-01 0.0000000000000000e+00  -2.7728344489862951e-04 6.3918166217175754e-01 0.0000000000000000e+00  -2.5959311464950302e-04 6.2906977825453114e-01 0.0000000000000000e+00  -2.3904608381681872e-04 6.1966675003254568e-01 0.0000000000000000e+00  -2.2335369190186144e-04 6.1099133519878002e-01 0.0000000000000000e+00  -2.0315218944191908e-04 6.0304611984694656e-01 0.0000000000000000e+00  -1.8435131947422583e-04 5.9581798883924508e-01 0.0000000000000000e+00  -1.6317267199931855e-04 5.8930348718799963e-01 0.0000000000000000e+00  -1.4612295184994242e-04 5.8349434888043394e-01 0.0000000000000000e+00  -1.2817394034797246e-04 5.7838749721982485e-01 0.0000000000000000e+00  -1.1326359747728929e-04 5.7397008273815564e-01 0.0000000000000000e+00  -9.5588695840118578e-05 5.7023424743678897e-01 0.0000000000000000e+00  -7.7259393573908178e-05 5.6716746143906893e-01 0.0000000000000000e+00  -5.5390128773594086e-05 5.6478009427498010e-01 0.0000000000000000e+00  -3.6712286463142612e-05 5.6306120297301288e-01 0.0000000000000000e+00  -1.9893681288660118e-05 5.6200686211745299e-01 0.0000000000000000e+00  1.4313174768564204e-06 5.6161741130494358e-01 0.0000000000000000e+00  2.0495030573581433e-05 5.6188902417991360e-01 0.0000000000000000e+00  3.4133936455458005e-05 5.6282293841647735e-01 0.0000000000000000e+00  4.8473568733205159e-05 5.6441933604607886e-01 0.0000000000000000e+00  6.7851422539157063e-05 5.6667860729643149e-01 0.0000000000000000e+00  8.5936158123807801e-05 5.6959539285089689e-01 0.0000000000000000e+00  1.0331383441230419e-04 5.7316708004712558e-01 0.0000000000000000e+00  1.1991805411214073e-04 5.7738348784771798e-01 0.0000000000000000e+00  1.3697622065186334e-04 5.8222948404272890e-01 0.0000000000000000e+00  1.5165076953537550e-04 5.8767972809893265e-01 0.0000000000000000e+00  1.6303248049160526e-04 5.9369461496787934e-01 0.0000000000000000e+00  1.7162044108433118e-04 6.0021652392067970e-01 0.0000000000000000e+00  1.8251366917632062e-04 6.0716383678206254e-01 0.0000000000000000e+00  1.9102556616768348e-04 6.1442256940938100e-01 0.0000000000000000e+00  1.9486497688345713e-04 6.2185873394781144e-01 0.0000000000000000e+00  1.8999488743394357e-04 6.2929175159230544e-01 0.0000000000000000e+00  1.8338272589612923e-04 6.3651167019485277e-01 0.0000000000000000e+00  1.7361386390256180e-04 6.4326232045747311e-01 0.0000000000000000e+00  1.3444819459071063e-04 6.4927228224626310e-01 0.0000000000000000e+00  1.0397702512320282e-04 6.5432558091115101e-01 0.0000000000000000e+00  8.0443642570203903e-05 6.5809772170134084e-01 0.0000000000000000e+00  2.8940343260950843e-05 6.6046955190396528e-01 0.0000000000000000e+00  2.5806466842770237e-06 6.6124309296132777e-01 0.0000000000000000e+00  -4.5429638086187832e-05 6.6044633432253974e-01 0.0000000000000000e+00  -7.3404634131484319e-05 6.5811607206984901e-01 0.0000000000000000e+00  -1.1448937990762735e-04 6.5431983301967200e-01 0.0000000000000000e+00  -1.4121463656357601e-04 6.4928723624800022e-01 0.0000000000000000e+00  -1.6807369797964319e-04 6.4325159353676642e-01 0.0000000000000000e+00  -1.8452795652481479e-04 6.3650409756916149e-01 0.0000000000000000e+00  -1.8902647717531471e-04 6.2929007766705325e-01 0.0000000000000000e+00  -1.9499200975582360e-04 6.2185711224697848e-01 0.0000000000000000e+00  -1.9391645948802508e-04 6.1442282949201188e-01 0.0000000000000000e+00  -1.8602820158115525e-04 6.0715849023809632e-01 0.0000000000000000e+00  -1.7756569271899257e-04 6.0021169887352677e-01 0.0000000000000000e+00  -1.6570870760843461e-04 5.9369300539132863e-01 0.0000000000000000e+00  -1.4919000373451023e-04 5.8768470260773142e-01 0.0000000000000000e+00  -1.3187552337534948e-04 5.8223602113963691e-01 0.0000000000000000e+00  -1.2166088662245209e-04 5.7740168887430743e-01 0.0000000000000000e+00  -9.6033936785425443e-05 5.7318527188685053e-01 0.0000000000000000e+00  -8.8018561927715320e-05 5.6960656645459684e-01 0.0000000000000000e+00  -6.2414925278491483e-05 5.6668943269329419e-01 0.0000000000000000e+00  -5.4808625844003894e-05 5.6442257801305884e-01 0.0000000000000000e+00  -3.1683375774662731e-05 5.6282167205694500e-01 0.0000000000000000e+00  -1.3737699446988810e-05 5.6188536798569166e-01 0.0000000000000000e+00  6.0351501341520373e-06 5.6161294807582907e-01 0.0000000000000000e+00  2.2220907785190989e-05 5.6200724697828042e-01 0.0000000000000000e+00  3.4091040388265021e-05 5.6306332005762061e-01 0.0000000000000000e+00  6.2970674403191361e-05 5.6477518859050113e-01 0.0000000000000000e+00  3.4308409665670545e-02 4.2455142539971819e-01 0.0000000000000000e+00  4.1134722815314571e-02 4.4756434403561318e-01 0.0000000000000000e+00  4.8041479226053951e-02 4.5187042614441830e-01 0.0000000000000000e+00  5.5045253696780060e-02 4.5587580255160676e-01 0.0000000000000000e+00  6.2167915365045040e-02 4.5894530737260453e-01 0.0000000000000000e+00  6.9430145993217368e-02 4.6548451861152146e-01 0.0000000000000000e+00  7.6863966188619959e-02 4.7080423011252798e-01 0.0000000000000000e+00  8.4499893913638172e-02 4.7743598385385150e-01 0.0000000000000000e+00  9.2381256096923423e-02 4.8098530985080740e-01 0.0000000000000000e+00  1.0055395321391201e-01 4.8938090411375601e-01 0.0000000000000000e+00  1.0907954501431134e-01 4.9650465978433556e-01 0.0000000000000000e+00  1.1803526324991519e-01 5.0517514483892723e-01 0.0000000000000000e+00  1.2751669322102177e-01 5.1509555642313665e-01 0.0000000000000000e+00  1.3763340641832189e-01 5.2441587753312180e-01 0.0000000000000000e+00  1.4852739858851716e-01 5.3558382153559969e-01 0.0000000000000000e+00  1.6034453505043969e-01 5.4684994079491933e-01 0.0000000000000000e+00  1.7322052800310209e-01 5.6152448838244340e-01 0.0000000000000000e+00  1.8721609932013630e-01 5.7831944227279652e-01 0.0000000000000000e+00  2.0214469702267368e-01 5.9902543492055893e-01 0.0000000000000000e+00  2.1717562258398471e-01 6.2742729632767802e-01 0.0000000000000000e+00  2.3004691578848702e-01 6.6470635952949297e-01 0.0000000000000000e+00  2.3493650629759341e-01 7.1135896470008186e-01 0.0000000000000000e+00  2.1997994765240825e-01 7.7215791716908289e-01 0.0000000000000000e+00  1.6807563465620304e-01 8.3208617190964829e-01 0.0000000000000000e+00  8.2896394948104454e-02 8.6732994276872144e-01 0.0000000000000000e+00  2.1061787973536281e-05 8.7062594237503577e-01 0.0000000000000000e+00  -8.2754447132481160e-02 8.6659420545355170e-01 0.0000000000000000e+00  -1.6803642498444854e-01 8.3248192576264401e-01 0.0000000000000000e+00  -2.1996021683036895e-01 7.6826702831601645e-01 0.0000000000000000e+00  -2.3507025856060620e-01 7.1148933583807772e-01 0.0000000000000000e+00  -2.3009302027399750e-01 6.6265403731975558e-01 0.0000000000000000e+00  -2.1723372649203618e-01 6.2643814060562508e-01 0.0000000000000000e+00  -2.0215783768951220e-01 5.9962074672171550e-01 0.0000000000000000e+00  -1.8721970712244562e-01 5.7846563329752088e-01 0.0000000000000000e+00  -1.7321859087334268e-01 5.6002275626926767e-01 0.0000000000000000e+00  -1.6034614032179062e-01 5.4480011686187357e-01 0.0000000000000000e+00  -1.4853117679488628e-01 5.3215812320076850e-01 0.0000000000000000e+00  -1.3763996230739325e-01 5.2079670876494044e-01 0.0000000000000000e+00  -1.2752000981648104e-01 5.1023545687666361e-01 0.0000000000000000e+00  -1.1803803592070020e-01 5.0125736220077133e-01 0.0000000000000000e+00  -1.0908170484894253e-01 4.9282151317491180e-01 0.0000000000000000e+00  -1.0055486283170656e-01 4.8474705737922341e-01 0.0000000000000000e+00  -9.2381281459841272e-02 4.7840528305904534e-01 0.0000000000000000e+00  -8.4502802087528903e-02 4.7216156459182379e-01 0.0000000000000000e+00  -7.6866185843890711e-02 4.6663524759024871e-01 0.0000000000000000e+00  -6.9432977467880394e-02 4.6082447398284571e-01 0.0000000000000000e+00  -6.2169318014795555e-02 4.5584020654799096e-01 0.0000000000000000e+00  -5.5046972969556497e-02 4.5074585042168258e-01 0.0000000000000000e+00  -4.8042977002177370e-02 4.4669895681561400e-01 0.0000000000000000e+00  -4.1134627027764659e-02 4.4391762244014354e-01 0.0000000000000000e+00  -3.4306308000858925e-02 4.4149823397455606e-01 0.0000000000000000e+00  -2.7537725531194927e-02 4.4015041123627785e-01 0.0000000000000000e+00  -2.0814328968285639e-02 4.3672186666261026e-01 0.0000000000000000e+00  -1.4119814769510897e-02 4.3595435978657854e-01 0.0000000000000000e+00  -7.4381916606764756e-03 4.3454004349429481e-01 0.0000000000000000e+00  -7.5384398848862952e-04 4.3302564763893087e-01 0.0000000000000000e+00  5.9530476889866841e-03 4.3450904888985847e-01 0.0000000000000000e+00  1.2697891856146649e-02 4.3526782255685115e-01 0.0000000000000000e+00  1.9505598264495130e-02 4.3683606987763446e-01 0.0000000000000000e+00  2.6399360656192673e-02 4.3802947358941619e-01 0.0000000000000000e+00  3.3409201473027957e-02 4.3981102985656700e-01 0.0000000000000000e+00  4.0567950076575085e-02 4.4075838771715803e-01 0.0000000000000000e+00  4.7927093540239177e-02 4.4629151594004579e-01 0.